REMARK SMILES Cc1cccc(Nc2ccccc2C(=O)O)c1C
REMARK SMILES IDX 13 1 12 2 11 3 10 4 9 5 8 6 14 7 15 8 16 9 7 11 6 13 17 14
REMARK SMILES IDX 5 15 2 16 4 17 3 18 18 19 1 20
REMARK H PARENT 16 10 7 12
ROOT
ATOM      1  C   UNL     1      36.664   3.527  60.062  1.00  0.00    +0.083 A 
ATOM      2  C   UNL     1      36.331   3.875  58.784  1.00  0.00    +0.018 A 
ATOM      3  C   UNL     1      37.213   3.792  57.767  1.00  0.00    +0.001 A 
ATOM      4  C   UNL     1      38.470   3.364  58.016  1.00  0.00    +0.002 A 
ATOM      5  C   UNL     1      38.817   3.024  59.271  1.00  0.00    +0.027 A 
ATOM      6  C   UNL     1      37.942   3.072  60.297  1.00  0.00    +0.053 A 
ENDROOT
BRANCH   1   7
ATOM      7  C   UNL     1      35.576   3.664  61.088  1.00  0.00    +0.337 C 
ATOM      8  O   UNL     1      34.553   4.169  60.792  1.00  0.00    -0.246 OA
BRANCH   7   9
ATOM      9  O   UNL     1      35.580   3.229  62.210  1.00  0.00    -0.478 OA
ATOM     10  H   UNL     1      36.389   2.783  62.565  1.00  0.00    +0.297 HD
ENDBRANCH   7   9
ENDBRANCH   1   7
BRANCH   6  11
ATOM     11  N   UNL     1      38.296   2.622  61.494  1.00  0.00    -0.355 N 
ATOM     12  H   UNL     1      37.725   2.990  62.268  1.00  0.00    +0.167 HD
BRANCH  11  13
ATOM     13  C   UNL     1      39.253   1.783  61.876  1.00  0.00    +0.042 A 
ATOM     14  C   UNL     1      39.810   1.943  63.116  1.00  0.00    -0.025 A 
ATOM     15  C   UNL     1      39.783   0.850  61.026  1.00  0.00    +0.026 A 
ATOM     16  C   UNL     1      40.884   1.179  63.471  1.00  0.00    -0.046 A 
ATOM     17  C   UNL     1      40.847   0.093  61.393  1.00  0.00    +0.002 A 
ATOM     18  C   UNL     1      41.387   0.264  62.618  1.00  0.00    +0.004 A 
ATOM     19  C   UNL     1      39.297   2.942  64.068  1.00  0.00    +0.047 C 
ATOM     20  C   UNL     1      41.531   1.322  64.792  1.00  0.00    +0.044 C 
ENDBRANCH  11  13
ENDBRANCH   6  11
TORSDOF 4
