REMARK SMILES O=c1c(O)c(-c2ccc(O)c(O)c2)oc2cc(O)cc(O)c12
REMARK SMILES IDX 14 1 1 2 22 3 15 4 5 5 3 6 2 7 20 8 16 9 17 10 19 11 6 12
REMARK SMILES IDX 13 13 7 14 11 15 8 16 9 17 12 18 10 20 4 22 21 24 18 26
REMARK H PARENT 12 19 10 21 4 23 21 25 18 27
ROOT
ATOM      1  O   UNL     1      -0.326  -0.866  -0.125  1.00  0.00    -0.452 OA
ATOM      2  O   UNL     1      -2.041   2.825   0.085  1.00  0.00    -0.285 OA
ATOM      3  C   UNL     1      -2.336   0.486   0.023  1.00  0.00    +0.111 A 
ATOM      4  C   UNL     1      -1.689  -0.746  -0.052  1.00  0.00    +0.146 A 
ATOM      5  C   UNL     1       0.442   0.288  -0.110  1.00  0.00    +0.180 A 
ATOM      6  C   UNL     1      -0.058   1.536  -0.049  1.00  0.00    +0.208 A 
ATOM      7  C   UNL     1      -1.528   1.715   0.026  1.00  0.00    +0.238 A 
ATOM      8  C   UNL     1      -3.730   0.547   0.094  1.00  0.00    +0.134 A 
ATOM      9  C   UNL     1      -2.433  -1.926  -0.059  1.00  0.00    +0.094 A 
ATOM     10  C   UNL     1      -3.826  -1.869   0.012  1.00  0.00    +0.123 A 
ATOM     11  C   UNL     1      -4.472  -0.634   0.088  1.00  0.00    +0.093 A 
ENDROOT
BRANCH   5  12
ATOM     12  C   UNL     1       1.888   0.018  -0.193  1.00  0.00    +0.025 A 
ATOM     13  C   UNL     1       2.636  -0.143   0.973  1.00  0.00    +0.062 A 
ATOM     14  C   UNL     1       2.509  -0.077  -1.439  1.00  0.00    +0.016 A 
ATOM     15  C   UNL     1       4.005  -0.400   0.894  1.00  0.00    +0.158 A 
ATOM     16  C   UNL     1       3.878  -0.333  -1.518  1.00  0.00    +0.051 A 
ATOM     17  C   UNL     1       4.626  -0.494  -0.352  1.00  0.00    +0.157 A 
BRANCH  15  18
ATOM     18  O   UNL     1       4.726  -0.554   2.039  1.00  0.00    -0.504 OA
ATOM     19  H   UNL     1       5.664  -0.375   1.863  1.00  0.00    +0.293 HD
ENDBRANCH  15  18
BRANCH  17  20
ATOM     20  O   UNL     1       5.962  -0.746  -0.442  1.00  0.00    -0.504 OA
ATOM     21  H   UNL     1       6.271  -1.170   0.374  1.00  0.00    +0.293 HD
ENDBRANCH  17  20
ENDBRANCH   5  12
BRANCH   6  22
ATOM     22  O   UNL     1       0.732   2.665  -0.069  1.00  0.00    -0.502 OA
ATOM     23  H   UNL     1       1.667   2.412  -0.123  1.00  0.00    +0.293 HD
ENDBRANCH   6  22
BRANCH   8  24
ATOM     24  O   UNL     1      -4.411   1.725   0.169  1.00  0.00    -0.507 OA
ATOM     25  H   UNL     1      -3.796   2.474   0.170  1.00  0.00    +0.293 HD
ENDBRANCH   8  24
BRANCH  10  26
ATOM     26  O   UNL     1      -4.554  -3.018   0.006  1.00  0.00    -0.508 OA
ATOM     27  H   UNL     1      -5.499  -2.794   0.060  1.00  0.00    +0.293 HD
ENDBRANCH  10  26
TORSDOF 6
