REMARK SMILES O=c1cc(-c2ccc(O)c(O)c2)oc2cc(O)cc(O)c12
REMARK SMILES IDX 13 1 1 2 21 3 14 4 4 5 2 6 3 7 19 8 15 9 16 10 18 11 5 12
REMARK SMILES IDX 12 13 6 14 10 15 7 16 8 17 11 18 9 20 20 22 17 24
REMARK H PARENT 11 19 9 21 20 23 17 25
ROOT
ATOM      1  O   UNL     1      -0.248   0.671  -0.129  1.00  0.00    -0.456 OA
ATOM      2  O   UNL     1      -2.109  -2.925   0.329  1.00  0.00    -0.289 OA
ATOM      3  C   UNL     1      -2.317  -0.586   0.062  1.00  0.00    +0.107 A 
ATOM      4  C   UNL     1      -1.618   0.610  -0.093  1.00  0.00    +0.146 A 
ATOM      5  C   UNL     1       0.470  -0.508   0.003  1.00  0.00    +0.138 A 
ATOM      6  C   UNL     1      -1.560  -1.840   0.193  1.00  0.00    +0.197 A 
ATOM      7  C   UNL     1      -0.088  -1.720   0.151  1.00  0.00    +0.100 A 
ATOM      8  C   UNL     1      -3.714  -0.588   0.091  1.00  0.00    +0.134 A 
ATOM      9  C   UNL     1      -2.312   1.812  -0.221  1.00  0.00    +0.094 A 
ATOM     10  C   UNL     1      -3.707   1.814  -0.193  1.00  0.00    +0.123 A 
ATOM     11  C   UNL     1      -4.406   0.617  -0.037  1.00  0.00    +0.093 A 
ENDROOT
BRANCH   5  12
ATOM     12  C   UNL     1       1.935  -0.329  -0.055  1.00  0.00    +0.021 A 
ATOM     13  C   UNL     1       2.516   0.854   0.407  1.00  0.00    +0.062 A 
ATOM     14  C   UNL     1       2.745  -1.342  -0.573  1.00  0.00    +0.016 A 
ATOM     15  C   UNL     1       3.899   1.023   0.352  1.00  0.00    +0.158 A 
ATOM     16  C   UNL     1       4.129  -1.173  -0.628  1.00  0.00    +0.051 A 
ATOM     17  C   UNL     1       4.706   0.009  -0.165  1.00  0.00    +0.157 A 
BRANCH  15  18
ATOM     18  O   UNL     1       4.452   2.183   0.806  1.00  0.00    -0.504 OA
ATOM     19  H   UNL     1       5.416   2.127   0.692  1.00  0.00    +0.293 HD
ENDBRANCH  15  18
BRANCH  17  20
ATOM     20  O   UNL     1       6.058   0.162  -0.223  1.00  0.00    -0.504 OA
ATOM     21  H   UNL     1       6.451  -0.639  -0.609  1.00  0.00    +0.293 HD
ENDBRANCH  17  20
ENDBRANCH   5  12
BRANCH   8  22
ATOM     22  O   UNL     1      -4.443  -1.729   0.240  1.00  0.00    -0.507 OA
ATOM     23  H   UNL     1      -3.858  -2.498   0.322  1.00  0.00    +0.293 HD
ENDBRANCH   8  22
BRANCH  10  24
ATOM     24  O   UNL     1      -4.388   2.987  -0.318  1.00  0.00    -0.508 OA
ATOM     25  H   UNL     1      -5.342   2.804  -0.277  1.00  0.00    +0.293 HD
ENDBRANCH  10  24
TORSDOF 5
