REMARK SMILES O=Cc1ccc(O)c(O)c1
REMARK SMILES IDX 3 1 8 2 10 3 6 4 4 5 5 6 9 7 7 9 2 11 1 12
REMARK H PARENT 9 8 7 10
ROOT
ATOM      1  C   UNL     1      -1.162  -0.194  -0.001  1.00  0.00    +0.018 A 
ATOM      2  C   UNL     1       1.183  -0.776   0.000  1.00  0.00    +0.158 A 
ATOM      3  C   UNL     1      -0.157  -1.162  -0.000  1.00  0.00    +0.061 A 
ATOM      4  C   UNL     1       1.519   0.578   0.000  1.00  0.00    +0.157 A 
ATOM      5  C   UNL     1      -0.826   1.159  -0.000  1.00  0.00    +0.015 A 
ATOM      6  C   UNL     1       0.514   1.546   0.000  1.00  0.00    +0.051 A 
ENDROOT
BRANCH   2   7
ATOM      7  O   UNL     1       2.156  -1.730   0.000  1.00  0.00    -0.504 OA
ATOM      8  H   UNL     1       3.021  -1.285   0.001  1.00  0.00    +0.293 HD
ENDBRANCH   2   7
BRANCH   4   9
ATOM      9  O   UNL     1       2.824   0.967  -0.000  1.00  0.00    -0.504 OA
ATOM     10  H   UNL     1       2.865   1.938  -0.000  1.00  0.00    +0.293 HD
ENDBRANCH   4   9
BRANCH   1  11
ATOM     11  C   UNL     1      -2.559  -0.597  -0.000  1.00  0.00    +0.260 C 
ATOM     12  O   UNL     1      -3.493   0.210   0.001  1.00  0.00    -0.298 OA
ENDBRANCH   1  11
TORSDOF 3
